LAMMPS FENE chain data file

         500  atoms
         480  bonds
        460  angles
        440  dihedrals
           0  impropers

         2 atom types
           1  bond types
           1  angle types
           1  dihedral types
           0  improper types

      -4.198991       4.198991 xlo xhi
      -4.198991       4.198991 ylo yhi
      -4.198991       4.198991 zlo zhi

Masses

    1  1
    2  3

Atoms

   1   1   1   1.1419   2.8797   1.5751   0   0   0
   2   1   2   0.5357   2.1565   1.7995   0   0   0
   3   1   1   0.0486   1.3335   1.9617   0   0   0
   4   1   2   -0.6906   1.4271   1.3406   0   0   0
   5   1   1   -0.4898   1.4949   0.3941   0   0   0
   6   1   2   -0.3628   2.2802   -0.1611   0   0   0
   7   1   1   0.0088   2.6241   0.6663   0   0   0
   8   1   2   -0.7608   2.2811   1.147   0   0   0
   9   1   1   -1.0336   1.8588   1.9765   0   0   0
   10   1   2   -0.2371   2.3609   2.2098   0   0   0
   11   1   1   -1.0246   2.581   2.7317   0   0   0
   12   1   2   -1.6689   2.0474   2.2407   0   0   0
   13   1   1   -2.4898   2.3955   2.6227   0   0   0
   14   1   2   -3.2589   2.5293   3.1983   0   0   0
   15   1   1   -2.8622   1.8886   3.8091   0   0   0
   16   1   2   -3.0999   2.6398   -4.0231   0   0   1
   17   1   1   -3.5427   3.4425   4.0577   0   0   0
   18   1   2   -3.3371   2.9921   3.2236   0   0   0
   19   1   1   -3.3256   2.2985   2.5456   0   0   0
   20   1   2   -3.6228   1.8225   1.7544   0   0   0
   21   1   1   -2.7098   1.496   1.7822   0   0   0
   22   1   2   -2.4432   2.4285   1.7671   0   0   0
   23   1   1   -3.243   2.6015   1.2464   0   0   0
   24   1   2   -3.4843   2.6292   2.1855   0   0   0
   25   1   1   -4.139   2.1275   2.696   0   0   0
   26   2   1   -2.8312   -0.7091   -1.8217   0   0   0
   27   2   2   -1.9652   -0.4363   -1.4803   0   0   0
   28   2   1   -1.6229   -0.2676   -0.5885   0   0   0
   29   2   2   -0.7097   0.0308   -0.4551   0   0   0
   30   2   1   -0.0206   0.2973   -1.0836   0   0   0
   31   2   2   -0.573   0.9703   -1.5112   0   0   0
   32   2   1   -1.2334   1.3837   -0.9334   0   0   0
   33   2   2   -1.1578   1.0317   -0.0327   0   0   0
   34   2   1   -0.5459   1.5052   0.5524   0   0   0
   35   2   2   -0.3405   0.7969   1.1826   0   0   0
   36   2   1   0.1381   0.018   1.5069   0   0   0
   37   2   2   0.8197   -0.0837   0.8243   0   0   0
   38   2   1   1.3516   -0.6269   0.2219   0   0   0
   39   2   2   1.9429   -0.5769   0.9891   0   0   0
   40   2   1   2.3598   0.2595   1.2493   0   0   0
   41   2   2   3.1385   0.075   1.7975   0   0   0
   42   2   1   3.9362   -0.0134   2.3422   0   0   0
   43   2   2   3.6675   -0.7033   2.9689   0   0   0
   44   2   1   3.4731   0.0706   3.5205   0   0   0
   45   2   2   2.8352   0.7985   3.457   0   0   0
   46   2   1   2.2726   0.0129   3.5423   0   0   0
   47   2   2   2.9316   -0.5615   3.9626   0   0   0
   48   2   1   3.432   -0.211   3.2092   0   0   0
   49   2   2   2.6301   0.0821   2.7487   0   0   0
   50   2   1   1.6701   0.1247   2.6168   0   0   0
   51   3   1   3.7612   3.0713   -2.6713   0   0   0
   52   3   2   2.842   3.3808   -2.6855   0   0   0
   53   3   1   2.5097   -4.1364   -2.4515   0   1   0
   54   3   2   3.2923   -3.607   -2.232   0   1   0
   55   3   1   3.5575   -4.0225   -3.0674   0   1   0
   56   3   2   4.026   3.7159   -3.6024   0   0   0
   57   3   1   4.0061   2.9499   -3.0075   0   0   0
   58   3   2   3.2028   2.4556   -2.7812   0   0   0
   59   3   1   2.7923   3.3338   -2.7476   0   0   0
   60   3   2   2.1241   3.1482   -3.4258   0   0   0
   61   3   1   1.6631   2.6788   -2.713   0   0   0
   62   3   2   2.0363   2.5468   -1.8275   0   0   0
   63   3   1   1.2081   2.572   -1.323   0   0   0
   64   3   2   1.5305   1.8635   -0.7442   0   0   0
   65   3   1   1.9552   2.0089   0.1157   0   0   0
   66   3   2   1.2688   2.6378   0.388   0   0   0
   67   3   1   0.5138   3.2193   0.207   0   0   0
   68   3   2   0.776   2.9861   -0.6973   0   0   0
   69   3   1   0.3691   2.135   -0.923   0   0   0
   70   3   2   1.0096   2.4335   -1.5875   0   0   0
   71   3   1   0.8438   3.3739   -1.4166   0   0   0
   72   3   2   1.7235   3.1961   -1.0484   0   0   0
   73   3   1   1.7826   4.0514   -1.5023   0   0   0
   74   3   2   2.7451   4.1582   -1.4459   0   0   0
   75   3   1   2.5058   -4.0414   -0.527   0   1   0
   76   4   1   0.436   -2.9566   -0.5944   0   0   0
   77   4   2   0.8018   -3.3529   0.2118   0   0   0
   78   4   1   0.8192   -2.459   0.588   0   0   0
   79   4   2   1.2592   -2.2662   1.4307   0   0   0
   80   4   1   0.8163   -1.4936   1.8152   0   0   0
   81   4   2   0.7565   -0.5857   1.4788   0   0   0
   82   4   1   0.978   0.3436   1.3109   0   0   0
   83   4   2   0.1139   0.188   0.8987   0   0   0
   84   4   1   -0.0697   1.1036   0.6362   0   0   0
   85   4   2   0.0094   1.6393   -0.1686   0   0   0
   86   4   1   -0.877   2.0332   -0.1615   0   0   0
   87   4   2   -0.8241   2.1969   -1.1161   0   0   0
   88   4   1   -1.3461   1.6088   -1.6841   0   0   0
   89   4   2   -0.7706   1.4224   -2.4424   0   0   0
   90   4   1   0.1593   1.2389   -2.6487   0   0   0
   91   4   2   0.86   0.908   -2.0653   0   0   0
   92   4   1   0.9004   1.8608   -2.2429   0   0   0
   93   4   2   1.7135   2.3851   -2.1733   0   0   0
   94   4   1   1.1856   2.5784   -1.3828   0   0   0
   95   4   2   0.4929   3.2573   -1.3723   0   0   0
   96   4   1   0.1463   3.2095   -2.277   0   0   0
   97   4   2   -0.3179   3.8144   -1.6775   0   0   0
   98   4   1   0.1196   -3.7314   -1.8302   0   1   0
   99   4   2   -0.8019   -4.0083   -1.953   0   1   0
   100   4   1   -1.1196   3.4763   -1.8777   0   0   0
   101   5   1   3.3649   2.663   -3.8278   0   0   0
   102   5   2   3.223   2.2282   -2.9724   0   0   0
   103   5   1   3.2831   1.3323   -3.3394   0   0   0
   104   5   2   3.578   1.4894   4.1479   0   0   -1
   105   5   1   3.145   2.3214   3.9008   0   0   -1
   106   5   2   2.5741   1.7123   3.407   0   0   -1
   107   5   1   2.6649   1.1951   2.5914   0   0   -1
   108   5   2   2.2545   0.656   1.8972   0   0   -1
   109   5   1   1.3016   0.5659   1.7397   0   0   -1
   110   5   2   0.9557   -0.3334   1.6281   0   0   -1
   111   5   1   0.2115   -0.8216   2.0138   0   0   -1
   112   5   2   0.0441   -1.3448   2.8132   0   0   -1
   113   5   1   -0.8042   -1.6711   3.1521   0   0   -1
   114   5   2   -0.4279   -1.569   4.0403   0   0   -1
   115   5   1   -0.8147   -2.0025   -3.5809   0   0   0
   116   5   2   -1.24   -2.2433   -2.743   0   0   0
   117   5   1   -1.1926   -2.8252   -1.9684   0   0   0
   118   5   2   -0.5666   -2.3264   -1.4204   0   0   0
   119   5   1   -1.266   -2.3983   -0.7521   0   0   0
   120   5   2   -0.6605   -3.1437   -0.6158   0   0   0
   121   5   1   -0.5948   -2.546   0.1454   0   0   0
   122   5   2   -0.7678   -3.281   0.7543   0   0   0
   123   5   1   -0.9006   -2.4389   1.217   0   0   0
   124   5   2   -1.2769   -1.6062   1.5424   0   0   0
   125   5   1   -2.2177   -1.8385   1.4999   0   0   0
   126   6   1   -3.3682   2.2538   -3.7078   0   0   0
   127   6   2   -3.5141   3.0159   4.108   0   0   -1
   128   6   1   -2.867   2.8399   3.4072   0   0   -1
   129   6   2   -3.0634   2.6632   2.4739   0   0   -1
   130   6   1   -2.1036   2.5824   2.5885   0   0   -1
   131   6   2   -2.118   2.6148   3.5578   0   0   -1
   132   6   1   -2.4702   2.9647   -4.0069   0   0   0
   133   6   2   -3.2645   3.1977   3.8853   0   0   -1
   134   6   1   4.1906   3.1982   4.1129   -1   0   -1
   135   6   2   3.532   3.0063   3.427   -1   0   -1
   136   6   1   3.2639   3.2445   2.5258   -1   0   -1
   137   6   2   3.6148   4.0882   2.2005   -1   0   -1
   138   6   1   3.5639   -3.9042   1.3208   -1   1   -1
   139   6   2   3.8735   -3.5095   2.151   -1   1   -1
   140   6   1   2.9183   -3.6784   2.1442   -1   1   -1
   141   6   2   2.4065   3.964   2.4729   -1   0   -1
   142   6   1   1.7369   3.3234   2.7595   -1   0   -1
   143   6   2   1.6143   3.7635   3.6152   -1   0   -1
   144   6   1   2.3799   3.5334   4.1646   -1   0   -1
   145   6   2   3.112   4.0576   -3.8727   -1   0   0
   146   6   1   2.7704   -3.6204   3.9722   -1   1   -1
   147   6   2   2.2319   -3.7899   -3.637   -1   1   0
   148   6   1   2.2183   3.639   -3.677   -1   0   0
   149   6   2   1.5145   3.0511   -3.9931   -1   0   0
   150   6   1   1.4949   2.7973   3.4689   -1   0   -1
   151   7   1   -2.9428   -3.694   1.7526   0   0   0
   152   7   2   -3.4568   4.068   2.2744   0   -1   0
   153   7   1   4.0367   4.0224   1.9269   -1   -1   0
   154   7   2   3.7737   4.1305   0.9995   -1   -1   0
   155   7   1   3.9347   -3.7448   0.1984   -1   0   0
   156   7   2   3.489   -3.5498   -0.6408   -1   0   0
   157   7   1   3.4134   -2.6015   -0.8303   -1   0   0
   158   7   2   2.7802   -1.9033   -1.0595   -1   0   0
   159   7   1   2.4293   -1.0084   -1.1894   -1   0   0
   160   7   2   2.717   -0.8108   -0.2844   -1   0   0
   161   7   1   3.5284   -1.1097   0.1552   -1   0   0
   162   7   2   3.8212   -1.9937   0.4269   -1   0   0
   163   7   1   3.8336   -2.8997   0.7731   -1   0   0
   164   7   2   -3.8466   -2.7237   1.4014   0   0   0
   165   7   1   -3.5519   -3.2105   2.187   0   0   0
   166   7   2   -3.0955   -2.3548   2.2039   0   0   0
   167   7   1   -3.5848   -1.5305   2.0555   0   0   0
   168   7   2   -3.8187   -0.9744   2.815   0   0   0
   169   7   1   3.947   -0.2441   2.9041   -1   0   0
   170   7   2   -4.0191   -0.6629   3.6651   0   0   0
   171   7   1   -3.8935   -1.1602   2.8418   0   0   0
   172   7   2   -4.0198   -0.6682   2.0154   0   0   0
   173   7   1   3.8097   -1.2443   1.4808   -1   0   0
   174   7   2   3.6267   -1.0676   0.5448   -1   0   0
   175   7   1   3.6954   -0.396   -0.1517   -1   0   0
   176   8   1   -1.3293   -3.1532   3.2637   0   0   0
   177   8   2   -2.14   -3.679   3.349   0   0   0
   178   8   1   -3.0411   -3.8527   3.6631   0   0   0
   179   8   2   -3.2226   -3.8166   -3.7827   0   0   1
   180   8   1   -3.6734   -2.9754   -3.6092   0   0   1
   181   8   2   -3.4164   -2.8214   -2.6866   0   0   1
   182   8   1   -2.4529   -2.9334   -2.6805   0   0   1
   183   8   2   -2.2423   -2.6446   -1.7788   0   0   1
   184   8   1   -2.7873   -3.3264   -1.3556   0   0   1
   185   8   2   -3.3345   -4.082   -1.0899   0   0   1
   186   8   1   -3.9138   3.5629   -0.8946   0   -1   1
   187   8   2   3.9003   3.8518   -0.176   -1   -1   1
   188   8   1   -4.1672   2.9504   -0.0378   0   -1   1
   189   8   2   3.3994   2.4809   -0.2089   -1   -1   1
   190   8   1   3.4692   2.8235   -1.1137   -1   -1   1
   191   8   2   3.9185   2.311   -1.8039   -1   -1   1
   192   8   1   -4.0643   1.6541   -2.3845   0   -1   1
   193   8   2   -3.5554   1.8375   -3.1897   0   -1   1
   194   8   1   -3.2886   2.7586   -3.0435   0   -1   1
   195   8   2   -3.0986   2.243   -2.2442   0   -1   1
   196   8   1   -2.2337   2.4921   -1.8826   0   -1   1
   197   8   2   -2.6944   3.2228   -2.3239   0   -1   1
   198   8   1   -3.175   4.0638   -2.376   0   -1   1
   199   8   2   -2.9176   4.0918   -1.4411   0   -1   1
   200   8   1   -3.16   3.1534   -1.4828   0   -1   1
   201   9   1   -3.2888   -0.0773   2.7728   0   0   0
   202   9   2   -2.527   -0.5424   2.3932   0   0   0
   203   9   1   -1.6002   -0.6883   2.6394   0   0   0
   204   9   2   -2.0171   -0.1691   3.3447   0   0   0
   205   9   1   -2.3106   0.3115   2.5549   0   0   0
   206   9   2   -2.0094   -0.2333   1.811   0   0   0
   207   9   1   -1.2538   0.2882   1.4979   0   0   0
   208   9   2   -0.6519   -0.3375   1.9305   0   0   0
   209   9   1   -0.3897   -1.2368   1.6789   0   0   0
   210   9   2   -1.0843   -1.6061   2.2464   0   0   0
   211   9   1   -1.7049   -0.9566   1.8804   0   0   0
   212   9   2   -2.187   -1.1164   2.7068   0   0   0
   213   9   1   -1.5414   -1.8098   2.4988   0   0   0
   214   9   2   -2.4156   -2.2242   2.4285   0   0   0
   215   9   1   -2.2302   -3.1762   2.4448   0   0   0
   216   9   2   -1.8217   -3.5477   1.6472   0   0   0
   217   9   1   -0.9881   -3.2724   1.2346   0   0   0
   218   9   2   -0.5381   -3.6857   1.988   0   0   0
   219   9   1   0.0152   3.9297   1.8383   0   -1   0
   220   9   2   0.5838   3.5916   1.1289   0   -1   0
   221   9   1   1.3782   3.0549   0.9812   0   -1   0
   222   9   2   1.1757   3.1698   0.0395   0   -1   0
   223   9   1   1.5343   3.1921   -0.8615   0   -1   0
   224   9   2   0.9176   2.4457   -0.8027   0   -1   0
   225   9   1   0.1387   2.8938   -0.4375   0   -1   0
   226   10   1   1.9044   2.6583   0.8653   0   0   0
   227   10   2   1.9718   3.6258   0.8835   0   0   0
   228   10   1   2.3503   -3.8947   0.7168   0   1   0
   229   10   2   2.5914   3.5955   0.4743   0   0   0
   230   10   1   2.6738   -4.1509   1.1882   0   1   0
   231   10   2   1.8561   4.0098   0.7235   0   0   0
   232   10   1   1.7148   -3.6408   0.1216   0   1   0
   233   10   2   1.2897   4.0483   0.6291   0   0   0
   234   10   1   1.0414   -4.0798   -0.2689   0   1   0
   235   10   2   0.101   4.1256   -0.4084   0   0   0
   236   10   1   0.5843   3.3144   -0.6305   0   0   0
   237   10   2   1.3124   3.7766   -1.0744   0   0   0
   238   10   1   0.7035   -3.867   -1.108   0   1   0
   239   10   2   1.6428   -3.959   -0.8839   0   1   0
   240   10   1   1.6886   -3.8077   -1.841   0   1   0
   241   10   2   2.6155   -4.029   -1.66   0   1   0
   242   10   1   3.5455   4.099   -1.6048   0   0   0
   243   10   2   -4.1772   3.8947   -0.9391   1   0   0
   244   10   1   -3.8826   3.3342   -0.2043   1   0   0
   245   10   2   3.878   2.6448   -0.4478   0   0   0
   246   10   1   3.5588   3.4354   -0.9104   0   0   0
   247   10   2   3.4882   -3.9981   -0.9854   0   1   0
   248   10   1   2.5471   4.1747   -0.9189   0   0   0
   249   10   2   1.6017   -4.0744   -0.7609   0   1   0
   250   10   1   2.0175   -3.3423   -0.2792   0   1   0
   251   11   1   -1.9197   0.7895   0.0427   0   0   0
   252   11   2   -2.7529   1.0212   -0.3965   0   0   0
   253   11   1   -3.4751   1.2178   -1.0136   0   0   0
   254   11   2   4.0383   1.4365   -0.6811   -1   0   0
   255   11   1   3.5211   0.7642   -0.2104   -1   0   0
   256   11   2   2.8734   0.2026   0.2433   -1   0   0
   257   11   1   2.5448   -0.6177   0.6435   -1   0   0
   258   11   2   1.6929   -0.3209   0.9999   -1   0   0
   259   11   1   1.5186   -0.7759   0.1611   -1   0   0
   260   11   2   1.7033   -1.0604   -0.7476   -1   0   0
   261   11   1   2.1656   -0.6031   -1.4673   -1   0   0
   262   11   2   2.8543   -1.2052   -1.1449   -1   0   0
   263   11   1   2.349   -1.5459   -1.8996   -1   0   0
   264   11   2   1.4657   -1.5733   -2.2994   -1   0   0
   265   11   1   0.8119   -2.2613   -2.4997   -1   0   0
   266   11   2   0.5642   -2.8624   -1.7798   -1   0   0
   267   11   1   1.0383   -3.6395   -1.4449   -1   0   0
   268   11   2   1.3264   -4.1728   -2.2023   -1   0   0
   269   11   1   1.0571   4.0074   -3.1084   -1   -1   0
   270   11   2   0.0931   3.9527   -3.2013   -1   -1   0
   271   11   1   0.5139   -3.7839   -3.7726   -1   0   0
   272   11   2   0.3206   3.9406   -3.1019   -1   -1   0
   273   11   1   0.2966   3.8738   -2.1345   -1   -1   0
   274   11   2   1.2079   3.5564   -2.0366   -1   -1   0
   275   11   1   2.1632   3.4925   -1.8807   -1   -1   0
   276   12   1   -2.5013   1.2272   0.8483   0   0   0
   277   12   2   -3.2121   1.0983   0.201   0   0   0
   278   12   1   -3.2498   1.9651   0.6347   0   0   0
   279   12   2   -3.1045   2.4183   1.4799   0   0   0
   280   12   1   -3.8481   1.8474   1.7289   0   0   0
   281   12   2   3.9605   2.1613   2.4325   -1   0   0
   282   12   1   -4.0803   2.846   1.8454   0   0   0
   283   12   2   3.8688   3.4152   1.2009   -1   0   0
   284   12   1   3.8718   2.4513   1.0921   -1   0   0
   285   12   2   3.4546   2.1678   0.2636   -1   0   0
   286   12   1   3.1292   2.3862   -0.6237   -1   0   0
   287   12   2   2.4358   2.2365   0.0379   -1   0   0
   288   12   1   1.9659   3.0234   0.3554   -1   0   0
   289   12   2   1.0024   3.1018   0.2751   -1   0   0
   290   12   1   1.0468   3.0823   -0.6937   -1   0   0
   291   12   2   1.8704   3.4121   -0.3015   -1   0   0
   292   12   1   1.7024   3.7932   -1.1776   -1   0   0
   293   12   2   2.2472   3.002   -1.3125   -1   0   0
   294   12   1   1.8757   2.8493   -2.1954   -1   0   0
   295   12   2   1.6819   1.9127   -2.034   -1   0   0
   296   12   1   0.7145   1.8837   -2.0977   -1   0   0
   297   12   2   0.6655   1.2183   -1.3936   -1   0   0
   298   12   1   0.6487   1.4436   -0.4503   -1   0   0
   299   12   2   -0.1925   1.0785   -0.1342   -1   0   0
   300   12   1   -0.3551   1.2793   -1.0692   -1   0   0
   301   13   1   0.4862   -0.5105   2.1509   0   0   0
   302   13   2   1.0203   -0.7373   2.9282   0   0   0
   303   13   1   1.6176   -1.4531   2.6606   0   0   0
   304   13   2   2.4336   -1.5427   2.1438   0   0   0
   305   13   1   3.387   -1.4855   2.3131   0   0   0
   306   13   2   -4.1574   -1.8593   2.0437   1   0   0
   307   13   1   -4.1704   -2.3903   2.8554   1   0   0
   308   13   2   -3.9504   -1.5186   3.2196   1   0   0
   309   13   1   4.0646   -1.1105   2.4274   0   0   0
   310   13   2   -3.7788   -0.9244   3.2012   1   0   0
   311   13   1   4.1658   -0.463   2.4783   0   0   0
   312   13   2   -3.7035   0.35   2.4995   1   0   0
   313   13   1   -2.8073   0.4768   2.8484   1   0   0
   314   13   2   -2.2059   -0.2814   2.7828   1   0   0
   315   13   1   -2.8074   -0.1871   2.0276   1   0   0
   316   13   2   -3.4184   -0.1046   2.7764   1   0   0
   317   13   1   -3.2412   -0.0781   3.7297   1   0   0
   318   13   2   -2.8522   -0.7909   -4.1377   1   0   1
   319   13   1   -2.4504   0.0639   -3.9173   1   0   1
   320   13   2   -3.3999   0.1535   -3.7403   1   0   1
   321   13   1   -3.5854   0.8926   4.0576   1   0   0
   322   13   2   4.1565   1.2935   -3.749   0   0   1
   323   13   1   3.3173   1.1152   4.1964   0   0   0
   324   13   2   2.5703   1.3619   3.6289   0   0   0
   325   13   1   2.4211   0.5619   3.101   0   0   0
   326   14   1   -0.098   -1.669   -1.6396   0   0   0
   327   14   2   -0.0986   -1.4269   -0.7003   0   0   0
   328   14   1   -1.0003   -1.3052   -0.364   0   0   0
   329   14   2   -1.634   -1.9567   -0.7027   0   0   0
   330   14   1   -0.9649   -2.4631   -1.1893   0   0   0
   331   14   2   -1.1861   -3.1822   -1.8016   0   0   0
   332   14   1   -2.0389   -2.7327   -1.909   0   0   0
   333   14   2   -2.8657   -2.2624   -1.7188   0   0   0
   334   14   1   -3.1199   -1.3599   -1.4701   0   0   0
   335   14   2   -3.2663   -0.8286   -0.6719   0   0   0
   336   14   1   -2.8843   -1.4551   -0.0375   0   0   0
   337   14   2   -2.2575   -1.2399   -0.7459   0   0   0
   338   14   1   -2.5577   -2.1287   -0.9926   0   0   0
   339   14   2   -3.1173   -2.818   -1.3831   0   0   0
   340   14   1   -2.6811   -3.6493   -1.6272   0   0   0
   341   14   2   -1.7918   -3.4674   -1.9691   0   0   0
   342   14   1   -1.0913   -4.1216   -2.1187   0   0   0
   343   14   2   -1.0558   3.5925   -2.8056   0   -1   0
   344   14   1   -1.8834   3.0917   -2.7334   0   -1   0
   345   14   2   -2.6926   3.1639   -2.2034   0   -1   0
   346   14   1   -1.8561   3.176   -1.7124   0   -1   0
   347   14   2   -1.4592   4.0587   -1.6469   0   -1   0
   348   14   1   -1.6166   3.9932   -2.6018   0   -1   0
   349   14   2   -2.3643   -3.871   -2.2906   0   0   0
   350   14   1   -1.6059   -3.4766   -1.8322   0   0   0
   351   15   1   -1.3843   -3.5306   1.4485   0   0   0
   352   15   2   -1.5226   4.0257   0.9867   0   -1   0
   353   15   1   -0.69   3.9101   0.5027   0   -1   0
   354   15   2   -1.0438   3.0178   0.6426   0   -1   0
   355   15   1   -1.4654   2.3609   0.0667   0   -1   0
   356   15   2   -1.5534   2.257   -0.8937   0   -1   0
   357   15   1   -2.4419   1.9729   -0.6278   0   -1   0
   358   15   2   -3.0908   1.38   -1.0381   0   -1   0
   359   15   1   -3.8201   0.7522   -1.1602   0   -1   0
   360   15   2   3.7454   0.6824   -1.6532   -1   -1   0
   361   15   1   -4.0737   -0.076   -1.8278   0   -1   0
   362   15   2   3.7342   -0.363   -2.5422   -1   -1   0
   363   15   1   3.4324   -0.2427   -1.6283   -1   -1   0
   364   15   2   2.8666   0.5031   -1.8823   -1   -1   0
   365   15   1   2.2759   -0.2432   -2.0697   -1   -1   0
   366   15   2   2.2797   -0.0204   -3.0138   -1   -1   0
   367   15   1   1.7066   0.6342   -2.5848   -1   -1   0
   368   15   2   1.3644   1.5364   -2.486   -1   -1   0
   369   15   1   0.7999   1.9253   -1.7998   -1   -1   0
   370   15   2   0.2942   1.3302   -1.2245   -1   -1   0
   371   15   1   0.4373   0.3938   -1.4335   -1   -1   0
   372   15   2   1.2537   0.3527   -1.9557   -1   -1   0
   373   15   1   1.4777   0.8281   -1.1404   -1   -1   0
   374   15   2   1.6504   1.6085   -0.5908   -1   -1   0
   375   15   1   0.834   1.1882   -0.2781   -1   -1   0
   376   16   1   -1.4944   1.3745   -1.0419   0   0   0
   377   16   2   -1.8459   0.9151   -0.2632   0   0   0
   378   16   1   -1.5658   1.3547   0.5549   0   0   0
   379   16   2   -1.7619   0.5941   1.1239   0   0   0
   380   16   1   -1.6073   -0.2182   1.6311   0   0   0
   381   16   2   -0.7954   -0.5343   2.0575   0   0   0
   382   16   1   -0.2062   -1.2588   1.795   0   0   0
   383   16   2   -0.3507   -2.1298   2.1969   0   0   0
   384   16   1   -0.1134   -2.9819   2.5951   0   0   0
   385   16   2   0.322   -3.3785   3.3658   0   0   0
   386   16   1   1.2108   -3.1737   3.6959   0   0   0
   387   16   2   1.498   -2.6093   2.9612   0   0   0
   388   16   1   2.2647   -3.1921   3.0772   0   0   0
   389   16   2   1.6231   -3.6625   2.5222   0   0   0
   390   16   1   1.552   3.7747   2.6352   0   -1   0
   391   16   2   1.2072   -3.9312   2.0495   0   0   0
   392   16   1   1.2239   -3.2023   2.6892   0   0   0
   393   16   2   2.0034   -3.6075   3.1003   0   0   0
   394   16   1   2.244   -2.6809   2.9439   0   0   0
   395   16   2   2.91   -2.2198   2.4104   0   0   0
   396   16   1   2.7118   -1.6929   1.6205   0   0   0
   397   16   2   3.4561   -1.6008   1.0054   0   0   0
   398   16   1   3.0395   -2.0386   0.2467   0   0   0
   399   16   2   3.9189   -2.375   0.4797   0   0   0
   400   16   1   3.8554   -2.6055   1.4198   0   0   0
   401   17   1   -4.0943   -0.4345   3.5549   0   0   0
   402   17   2   -3.2408   -0.8937   3.5165   0   0   0
   403   17   1   -3.1364   -0.4423   2.6643   0   0   0
   404   17   2   -2.4831   0.1071   2.2035   0   0   0
   405   17   1   -2.3912   0.4409   1.2974   0   0   0
   406   17   2   -3.0128   0.8959   0.7079   0   0   0
   407   17   1   -3.8785   1.1226   0.3337   0   0   0
   408   17   2   -3.35   1.3226   -0.4547   0   0   0
   409   17   1   -3.9649   1.8687   -0.9691   0   0   0
   410   17   2   3.6201   1.352   -0.8556   -1   0   0
   411   17   1   4.0971   2.1901   -0.7505   -1   0   0
   412   17   2   -3.6529   2.8514   -0.4613   0   0   0
   413   17   1   -2.7309   2.8894   -0.7601   0   0   0
   414   17   2   -2.0293   2.2221   -0.8184   0   0   0
   415   17   1   -2.155   1.2718   -0.9663   0   0   0
   416   17   2   -2.7945   0.7971   -0.4125   0   0   0
   417   17   1   -2.0269   0.2052   -0.3775   0   0   0
   418   17   2   -2.7401   -0.1918   -0.9015   0   0   0
   419   17   1   -2.602   -1.1262   -0.6809   0   0   0
   420   17   2   -2.3147   -1.1319   -1.6073   0   0   0
   421   17   1   -1.7951   -0.8611   -2.3804   0   0   0
   422   17   2   -1.5526   -0.6737   -3.3007   0   0   0
   423   17   1   -1.5143   -1.6199   -3.511   0   0   0
   424   17   2   -1.1203   -1.2312   4.0904   0   0   -1
   425   17   1   -1.0903   -0.4034   3.5857   0   0   -1
   426   18   1   1.6169   -0.6599   2.4317   0   0   0
   427   18   2   0.7871   -0.273   2.7522   0   0   0
   428   18   1   0.7082   0.6894   2.6596   0   0   0
   429   18   2   1.3874   0.9143   3.3145   0   0   0
   430   18   1   1.3489   1.8763   3.4331   0   0   0
   431   18   2   2.0105   2.5569   3.633   0   0   0
   432   18   1   2.6565   1.9311   3.2695   0   0   0
   433   18   2   2.2799   1.1237   3.6532   0   0   0
   434   18   1   3.0116   0.602   4.0184   0   0   0
   435   18   2   3.6328   1.3159   -4.1666   0   0   1
   436   18   1   4.1939   0.7628   -3.6007   0   0   1
   437   18   2   3.3527   0.281   -3.5659   0   0   1
   438   18   1   3.4086   -0.6268   -3.2289   0   0   1
   439   18   2   4.0087   -0.1043   -2.6743   0   0   1
   440   18   1   -3.5721   0.3081   -2.3532   1   0   1
   441   18   2   -2.8853   0.4856   -1.6917   1   0   1
   442   18   1   -3.4539   0.1851   -0.9655   1   0   1
   443   18   2   -4.1757   -0.2868   -1.4096   1   0   1
   444   18   1   3.5626   0.3897   -1.1901   0   0   1
   445   18   2   4.1184   0.3982   -1.9851   0   0   1
   446   18   1   -3.5224   -0.1713   -2.1928   1   0   1
   447   18   2   -3.1691   -1.0423   -1.9529   1   0   1
   448   18   1   -3.1643   -0.8526   -1.0017   1   0   1
   449   18   2   -2.3595   -1.0368   -0.4924   1   0   1
   450   18   1   -2.7439   -1.0948   0.3963   1   0   1
   451   19   1   -3.2898   1.0276   -3.9908   0   0   0
   452   19   2   -3.1349   0.1143   -3.7032   0   0   0
   453   19   1   -3.8863   -0.4614   -3.4915   0   0   0
   454   19   2   3.5593   -0.5184   -3.6664   -1   0   0
   455   19   1   3.2825   -0.8809   3.8755   -1   0   -1
   456   19   2   2.8248   -0.0263   3.9092   -1   0   -1
   457   19   1   2.6045   0.4263   3.08   -1   0   -1
   458   19   2   2.5596   -0.3923   2.5615   -1   0   -1
   459   19   1   2.5019   -0.8972   1.7353   -1   0   -1
   460   19   2   2.9019   -0.5249   0.9339   -1   0   -1
   461   19   1   2.3207   0.2334   1.1016   -1   0   -1
   462   19   2   1.8349   -0.5617   1.3712   -1   0   -1
   463   19   1   1.1364   -0.9156   0.7987   -1   0   -1
   464   19   2   1.2558   -1.8487   1.0355   -1   0   -1
   465   19   1   2.1858   -1.622   0.8783   -1   0   -1
   466   19   2   2.4107   -2.4792   0.4839   -1   0   -1
   467   19   1   2.8439   -2.8839   -0.2838   -1   0   -1
   468   19   2   3.7893   -2.7631   -0.4645   -1   0   -1
   469   19   1   3.9115   -1.8407   -0.1905   -1   0   -1
   470   19   2   3.2387   -1.1983   -0.4656   -1   0   -1
   471   19   1   3.438   -1.1032   0.479   -1   0   -1
   472   19   2   3.3333   -1.8504   1.0886   -1   0   -1
   473   19   1   -4.1887   -2.1439   0.7929   0   0   -1
   474   19   2   3.356   -2.2559   0.3453   -1   0   -1
   475   19   1   3.4434   -2.8282   1.1236   -1   0   -1
   476   20   1   -1.8065   -3.7626   -1.7681   0   0   0
   477   20   2   -0.923   -4.12   -1.588   0   0   0
   478   20   1   -1.237   -3.4937   -0.9172   0   0   0
   479   20   2   -0.9126   -4.0818   -0.2174   0   0   0
   480   20   1   -0.3585   3.7388   0.3308   0   -1   0
   481   20   2   -0.9305   -3.9365   0.6331   0   0   0
   482   20   1   -1.3966   3.7941   0.1056   0   -1   0
   483   20   2   -1.7057   3.2204   -0.6129   0   -1   0
   484   20   1   -1.8477   2.2928   -0.8583   0   -1   0
   485   20   2   -2.5205   1.8464   -0.3208   0   -1   0
   486   20   1   -2.5447   1.1409   -0.9861   0   -1   0
   487   20   2   -2.1493   0.5132   -0.3612   0   -1   0
   488   20   1   -1.2942   0.9711   -0.362   0   -1   0
   489   20   2   -0.3569   0.7654   -0.2205   0   -1   0
   490   20   1   -0.2163   0.7116   0.7377   0   -1   0
   491   20   2   -0.8676   -0.0016   0.6475   0   -1   0
   492   20   1   -0.2138   -0.2898   1.3036   0   -1   0
   493   20   2   -0.047   -0.5752   0.3916   0   -1   0
   494   20   1   -0.8195   -1.1333   0.2107   0   -1   0
   495   20   2   -1.5632   -1.5385   -0.2621   0   -1   0
   496   20   1   -1.8507   -2.4182   0.0284   0   -1   0
   497   20   2   -2.7514   -2.778   0.0206   0   -1   0
   498   20   1   -3.6815   -3.0537   0.0207   0   -1   0
   499   20   2   -3.9965   -3.3626   -0.8431   0   -1   0
   500   20   1   -3.556   -3.2164   -1.6949   0   -1   0

Bonds

        1  1        1        2
        2  1        2        3
        3  1        3        4
        4  1        4        5
        5  1        5        6
        6  1        6        7
        7  1        7        8
        8  1        8        9
        9  1        9       10
       10  1       10       11
       11  1       11       12
       12  1       12       13
       13  1       13       14
       14  1       14       15
       15  1       15       16
       16  1       16       17
       17  1       17       18
       18  1       18       19
       19  1       19       20
       20  1       20       21
       21  1       21       22
       22  1       22       23
       23  1       23       24
       24  1       24       25
       25  1       26       27
       26  1       27       28
       27  1       28       29
       28  1       29       30
       29  1       30       31
       30  1       31       32
       31  1       32       33
       32  1       33       34
       33  1       34       35
       34  1       35       36
       35  1       36       37
       36  1       37       38
       37  1       38       39
       38  1       39       40
       39  1       40       41
       40  1       41       42
       41  1       42       43
       42  1       43       44
       43  1       44       45
       44  1       45       46
       45  1       46       47
       46  1       47       48
       47  1       48       49
       48  1       49       50
       49  1       51       52
       50  1       52       53
       51  1       53       54