LAMMPS data file via write_data, version 8 Apr 2021, timestep = 0

1949 atoms
49 atom types
1870 bonds
17 bond types
3174 angles
33 angle types
5332 dihedrals
36 dihedral types

16.009790632345993 67.99020936751478 xlo xhi
14.097807896444323 69.90219210345953 ylo yhi
17.629464767428978 76.37053523238419 zlo zhi
0 0 0 xy xz yz

Masses

1 16
2 12.01
3 12.01
4 16
5 1.008
6 1.008
7 1.008
8 1.008
9 12.01
10 12.01
11 12.01
12 12.01
13 12.01
14 12.01
15 12.01
16 12.01
17 12.01
18 1.008
19 1.008
20 1.008
21 1.008
22 1.008
23 1.008
24 1.008
25 1.008
26 14.01
27 16
28 16
29 1.008
30 1.008
31 1.008
32 12.01
33 12.01
34 12.01
35 12.01
36 12.01
37 12.01
38 12.01
39 12.01
40 12.01
41 1.008
42 1.008
43 1.008
44 1.008
45 1.008
46 1.008
47 1.008
48 1.008
49 1.008

Pair Coeffs # lj/cut/coul/long

1 0.17 3
2 0.086 3.4
3 0.1094 3.4
4 0.2104 3.066
5 0.015 2.6
6 0.0157 2.649
7 0.0157 2.471
8 0 0
9 0.1094 3.4
10 0.1094 3.4
11 0.1094 3.4
12 0.086 3.4
13 0.086 3.4
14 0.086 3.4
15 0.086 3.4
16 0.1094 3.4
17 0.1094 3.4
18 0.0157 2.649
19 0.0157 2.471
20 0.0157 2.471
21 0.0157 2.471
22 0.015 2.6
23 0.015 2.6
24 0.015 2.6
25 0.0157 2.649
26 0.17 3.25
27 0.17 3
28 0.17 3
29 0.0157 1.069
30 0.0157 1.069
31 0.0157 2.65
32 0.1094 3.4
33 0.1094 3.4
34 0.1094 3.4
35 0.1094 3.4
36 0.1094 3.4
37 0.1094 3.4
38 0.1094 3.4
39 0.1094 3.4
40 0.1094 3.4
41 0.0157 2.471
42 0.0157 2.471
43 0.0157 2.65
44 0.0157 2.471
45 0.0157 2.471
46 0.0157 2.65
47 0.0157 2.471
48 0.0157 2.471
49 0.0157 2.65

Bond Coeffs # harmonic

1 372.4 1.373
2 301.5 1.439
3 478.4 1.387
4 344.3 1.087
5 323.5 1.513
6 303.1 1.535
7 337.3 1.093
8 335.9 1.093
9 314.1 1.426
10 369.6 0.974
11 320.6 1.47
12 394.1 1.018
13 303.1 1.535
14 335.9 1.093
15 301.5 1.439
16 337.3 1.092
17 320.6 1.47

Angle Coeffs # harmonic

1 69.79 119.2
2 67.78 108.42
3 50.84 108.82
4 62.27 117.97
5 67.18 119.97
6 48.46 120.01
7 63.84 120.63
8 63.25 112.09
9 63.66 112.26
10 46.37 110.05
11 63.21 110.63
12 67.72 109.43
13 46.36 110.07
14 47.09 108.16
15 50.97 109.88
16 39.43 108.35
17 39.18 109.55
18 66.18 110.38
19 49.39 109.92
20 47.13 109.92
21 67.78 108.42
22 46.36 110.07
23 46.37 110.05
24 63.21 110.63
25 62.39 112.45
26 50.84 108.82
27 41.3 107.13
28 39.18 109.55
29 39.43 108.35
30 64.01 110.9
31 64.01 110.9
32 66.18 110.38
33 49.39 109.92

Dihedral Coeffs # harmonic

1 3.625 -1 2
2 0.156 1 3
3 1.175 1 2
4 0.144 1 3
5 0.25 1 1
6 0 1 3
7 0.383 1 3
8 0.9 -1 2
9 0 1 2
10 0.16 1 3
11 0.167 1 3
12 1.1 -1 2
13 0.156 1 3
14 0.1 -1 2
15 0.383 1 3
16 0.3 1 3
17 0.16 1 3
18 0.383 1 3
19 0.25 1 1
20 0 1 3
21 1.175 1 2
22 0.144 1 3
23 0.156 1 3
24 0.3 1 3
25 0.48 -1 2
26 0.3 1 3
27 0.3 1 3
28 0.48 -1 2
29 0.3 1 3
30 0.48 -1 2
31 0.3 1 3
32 0.3 1 3
33 0.48 -1 2
34 0.156 1 3
35 0.3 1 3
36 0.156 1 3

Atoms # full

229 38 9 0.158 29.457221679043208 33.594419037349155 35.10426248923318 0 0 0
230 38 19 0.052 30.188901104033434 32.91905956610641 34.7620669109689 0 0 0
231 38 19 0.052 28.693179094407853 32.84936285089802 35.50276095421861 0 0 0
233 38 1 -0.341 31.61446665613162 32.91505805467983 37.12542521034315 0 0 0
253 38 10 0.128 29.94921058775561 34.47241620967387 36.271644214335936 0 0 0
254 38 4 -0.604 28.831940877931107 35.22314329299762 36.731061125235556 0 0 0
255 38 23 0.147 30.630030118458954 30.552903607115095 37.06411781274855 0 0 0
275 38 20 0.066 30.74505231847295 35.170185371499656 35.8906668086279 0 0 0
276 38 8 0.416 28.06814621635501 35.070684937090576 36.153880133168386 0 0 0
287 48 27 -0.438 16.07243794754654 22.3023403608938 35.20125035968836 0 0 0
288 48 33 0.112 16.81663325737153 23.363253994712103 35.87620378836594 0 0 0
289 48 32 0.195 16.796136529896177 24.632645822652677 34.97960022740156 0 0 0
290 48 34 -0.0995 17.451570863051934 25.861825821978353 35.63490178127745 0 0 0
291 48 48 0.0337 16.58180746884026 20.77233249621891 36.56304276142063 0 0 0
292 48 42 0.049 17.866340973079904 23.07007023098428 35.96560076781138 0 0 0
293 48 42 0.049 16.356563406811787 23.59305972154158 36.8407541776523 0 0 0
294 48 49 0.0417 16.129952457732742 18.307001916046968 35.37066462473422 0 0 0
295 48 49 0.0547 16.777615473672572 19.542798419952803 34.3202302956273 0 0 0
296 48 41 0.044 17.402453129156058 24.35666693798897 34.131973260064285 0 0 0
297 48 43 0.045 17.08081962726297 26.80463057441328 35.23840782657727 0 0 0
298 48 43 0.045 18.536171231291195 25.846143562919742 35.46752170826599 0 0 0
299 48 43 0.045 17.28501896517761 25.91886201397248 36.70520192010548 0 0 0
313 49 1 -0.341 31.66352605547823 19.596817078205508 33.213956841368855 0 0 0
323 49 17 -0.0861 28.09841291169539 16.135498006214082 36.98597884025487 0 0 0
324 49 15 -0.1063 29.41752809509618 18.152375518142755 36.520531841481706 0 0 0
325 49 14 -0.086 28.79326016061603 18.632802053821955 35.350353502035816 0 0 0
326 49 13 -0.201 29.574867081449852 19.092582919689974 34.27855322017869 0 0 0
327 49 12 0.1251 30.969250904033768 19.112473988497587 34.30325733513177 0 0 0
328 49 13 -0.16 31.609301093175368 18.655404580584513 35.50133850365538 0 0 0
329 49 14 -0.098 30.819990571358716 18.141334397066043 36.538311859560025 0 0 0
330 49 11 0.106 33.099516682309755 19.50906274860821 33.13384866474698 0 0 0
341 49 25 0.0367 28.950859339719802 15.570641437511764 36.5449790389133 0 0 0
342 49 25 0.0397 27.47999440860199 16.4199652871577 36.14033295368752 0 0 0
344 49 24 0.139 27.724542079286252 18.706781538455324 35.32518303189198 0 0 0
345 49 23 0.14 29.116517192690644 19.354768545563115 33.31837910889484 0 0 0
346 49 23 0.147 32.69488172484464 18.707447652789483 35.61378256732262 0 0 0
348 49 21 0.06 33.44696783390282 18.458090428335705 33.19398058704735 0 0 0
349 49 21 0.06 33.61141144431212 20.071467915925272 33.94101284516963 0 0 0
381 73 19 0.052 32.53285074369542 30.45044895068045 32.754237415935506 0 0 0
382 73 1 -0.341 33.84998481548214 34.72993552506935 34.257426883845994 0 0 0
383 73 12 0.1251 40.61680322080305 39.30398889851139 33.63301621480764 0 0 0
384 73 13 -0.16 39.883932863838865 38.7373120509786 34.70531536753472 0 0 0
385 73 14 -0.098 38.52690965842953 38.91953915915451 34.70840708728352 0 0 0
386 73 15 -0.1063 37.88597754562665 39.68500051633836 33.749912424149244 0 0 0
387 73 16 0.0496 36.36197890448849 39.91839342043719 33.954427212436514 0 0 0
388 73 15 -0.1063 35.61942473613803 38.52684206927525 33.924433595370076 0 0 0
389 73 14 -0.086 34.482268449923254 38.34310364599146 34.70578141284234 0 0 0
390 73 13 -0.201 33.84967330904433 37.09460581350568 34.81142036842496 0 0 0
391 73 12 0.1251 34.40508144052075 35.99070309452223 34.112734076778516 0 0 0
392 73 13 -0.16 35.47360256909727 36.17055706225669 33.20932066757997 0 0 0
393 73 14 -0.098 36.031339065859896 37.465046941488964 33.105111047447366 0 0 0
394 73 11 0.106 34.15659727154082 33.56463623522565 33.388549899746465 0 0 0
395 73 10 0.128 33.18240315779148 32.40555543163336 33.64669450432164 0 0 0
396 73 4 -0.604 33.36621662905624 31.758040197426045 34.899489721762365 0 0 0
397 73 23 0.147 40.328810677715765 38.10758633476132 35.452940872370334 0 0 0
398 73 24 0.136 37.89397490255462 38.43667449491717 35.4171519934778 0 0 0
399 73 25 0.0367 36.403384949381135 40.04930187490581 36.1345573430968 0 0 0
400 73 24 0.139 33.93723906692926 39.12550375152496 35.30149106258055 0 0 0
401 73 23 0.14 32.94551716873886 36.94812383516018 35.36466754204153 0 0 0
402 73 21 0.06 35.22992060126488 33.3027929550291 33.5536242857916 0 0 0
403 73 20 0.066 32.18920424084046 32.76533824370007 33.60676075766467 0 0 0
404 73 8 0.416 33.12295575977001 32.35662635737823 35.596091291542734 0 0 0
406 77 19 0.052 17.425126069895327 36.26195904667526 36.43318165779331 0 0 0
412 76 9 0.158 37.47077274018684 16.202517767488146 36.891446607516606 0 0 0
413 76 19 0.052 38.481676921949585 15.886453395982802 37.039948205415 0 0 0
438 76 8 0.416 35.96335191550713 18.097505180051943 36.35382131758519 0 0 0
441 102 26 -0.755 29.302921406573823 28.112427042360245 32.928724253842105 0 0 0
443 102 32 0.195 29.779430260570457 29.164398468984473 33.91263705496905 0 0 0
444 102 33 0.112 28.63522363306321 29.75055380003422 34.870801392361926 0 0 0
445 102 27 -0.438 28.332250306344 28.75124952988739 35.848298065576884 0 0 0
446 102 35 0.1401 27.393300072906907 29.09941418363327 36.91132947918618 0 0 0
447 102 36 0.0954 26.097821161123516 28.253267128659225 36.8379895245465 0 0 0
448 102 28 -0.4306 25.054935434456574 29.097641073255783 36.25108504712713 0 0 0
449 102 38 0.1401 23.722947581346975 28.443307985463015 36.163717566056505 0 0 0
453 102 34 -0.0995 31.044815849241214 28.78914607109813 34.653331356995096 0 0 0
455 102 40 -0.0951 22.768007745480308 29.348773490404696 35.44891215301179 0 0 0
458 102 41 0.044 30.102845207535722 30.02766340642785 33.269320586835136 0 0 0
459 102 42 0.049 27.77581461698704 29.984286875817475 34.29756617225033 0 0 0
460 102 42 0.049 28.973369420395727 30.701513500052656 35.32974577386892 0 0 0
461 102 44 0.0577 27.149733102261543 30.190880850540665 36.82880744423029 0 0 0
463 102 45 0.0437 26.251303082246196 27.258028476889315 36.39412064244196 0 0 0
464 102 47 0.0577 23.848381066925004 27.486598093096255 35.58938822439486 0 0 0
469 102 43 0.045 31.451619208067235 29.680797269271004 35.085872255012205 0 0 0
470 102 43 0.045 31.76428754496677 28.33019275065964 33.95135962308345 0 0 0
471 102 43 0.045 30.854628547004765 28.09522450116404 35.42759467291016 0 0 0
475 102 49 0.0417 23.111067621959418 29.682615447571187 34.47120113640206 0 0 0
476 102 49 0.0547 22.4304546704696 30.198978209924682 36.103114959227824 0 0 0
477 102 49 0.0467 21.85928209132933 28.838421475556537 35.1861539907967 0 0 0
482 105 37 -0.0941 20.42117668536956 30.466817946592336 33.3970374973566 0 0 0
483 105 42 0.049 21.98681310867515 27.93635286056371 32.86354868667956 0 0 0
484 105 42 0.049 20.217352918251265 24.385250461299094 32.723242672379996 0 0 0
485 105 43 0.045 24.33414810675348 28.120966235948245 33.526505757721026 0 0 0
486 105 46 0.0447 20.275912660696136 29.40216800686906 33.692577668831305 0 0 0
487 105 46 0.0497 19.46474904623373 30.98253133381036 33.37924763627403 0 0 0
488 105 46 0.0447 20.915020268115107 31.046375992863982 34.15665593197771 0 0 0
489 113 19 0.052 23.47733276373124 25.951232675373994 33.436056037315566 0 0 0
490 113 1 -0.341 23.6056108513472 24.137837935253934 34.94427533594509 0 0 0
502 113 13 -0.201 21.76425678122565 24.920320095539346 36.17854849497357 0 0 0
503 113 12 0.1251 22.87626550275277 24.151770088149796 36.118078382451735 0 0 0
504 113 13 -0.16 23.41822003262929 23.487211356550787 37.1967305868685 0 0 0
506 113 11 0.106 23.15320434499454 23.387146190754137 33.83523609986821 0 0 0
518 113 23 0.14 21.417549436857065 25.457585291815988 35.323186121555224 0 0 0
519 113 23 0.147 24.336882857985646 22.85398925167076 37.06778135881174 0 0 0
521 113 21 0.06 22.043797522137737 23.293344565829216 33.893000711094274 0 0 0
522 113 21 0.06 23.515638699077105 22.404016827633946 33.89118758575886 0 0 0
586 128 1 -0.341 20.702097161991123 15.822211860135738 32.91623285750715 0 0 0
587 128 12 0.1251 20.90620313374759 14.504657504990114 33.258204257607254 0 0 0
588 128 13 -0.16 21.138468937017784 14.176195338861772 34.571268141242456 0 0 0
589 128 4 -0.604 17.932280768097744 16.392020606064328 33.589563554984345 0 0 0
590 128 23 0.147 21.1948715566004 15.026927249876717 35.26107721926364 0 0 0
591 128 8 0.416 17.27784671870252 15.623880025252097 33.86622053772915 0 0 0
592 127 19 0.052 29.62173097814662 15.948307285873614 33.124422576951716 0 0 0
595 127 23 0.147 25.956547807728263 14.933492271111367 34.41438541336241 0 0 0
596 127 24 0.136 24.81740535604178 14.189112390835376 36.4002737636264 0 0 0
597 127 21 0.06 27.005950092602063 15.433013194791364 32.831413911402656 0 0 0
758 150 49 0.0467 40.54078207418739 17.306919701757877 37.084091251875705 0 0 0
763 154 19 0.052 20.190844746863718 35.93416383385038 37.04029495986185 0 0 0
813 161 9 0.158 35.08118577850931 29.70854879166052 33.074895049925786 0 0 0
814 161 19 0.052 34.48216772644072 28.75551844300805 32.99243774415294 0 0 0
815 161 19 0.052 35.03258558355516 30.09515602358858 34.07924304584758 0 0 0
817 161 1 -0.341 36.27848522207983 27.652696786065583 34.58546053808138 0 0 0
818 161 12 0.1251 36.653978902084475 26.745802890282725 35.58492049010361 0 0 0
819 161 13 -0.16 35.61891263685105 26.06104507827925 36.23332127119784 0 0 0
822 161 14 -0.086 38.2015695410382 25.593083527504064 37.06711325318946 0 0 0
823 161 13 -0.201 37.93374872364962 26.43003583630636 35.980504630373304 0 0 0
836 161 11 0.106 37.22576244138307 28.57864442141642 34.03124948098436 0 0 0
837 161 10 0.128 36.61561547025384 29.434124494674354 32.897042770751476 0 0 0
838 161 4 -0.604 37.26870692111343 30.73121977238522 32.86404550478536 0 0 0
839 161 23 0.147 34.63985010016164 26.218310323918203 35.862859390400686 0 0 0
842 161 23 0.14 38.76802223796819 26.77756535122093 35.45511329686151 0 0 0
855 161 21 0.06 38.08052155134682 28.040159563059937 33.608687906799275 0 0 0
856 161 21 0.06 37.53838511374826 29.226087013642726 34.80875418813845 0 0 0
1045 187 9 0.158 29.90690580406988 35.16432185613189 33.090946810697574 0 0 0
1046 187 19 0.052 30.887915003687922 35.06418488831909 33.522065900565195 0 0 0
1047 187 10 0.128 29.50209504595339 36.612890146612 32.88097497491503 0 0 0
1048 187 4 -0.604 29.16629717014508 37.066953774520535 34.182278707516545 0 0 0
1049 187 21 0.06 31.611260774354992 37.332697859665174 32.9318937573083 0 0 0
1050 187 8 0.416 28.53392643263006 36.351875240101165 34.494096937039856 0 0 0
1051 187 21 0.06 40.75690549900598 36.27591682209072 33.88176016593529 0 0 0
1063 207 33 0.112 18.672676488412975 32.35365400659458 36.542773822077905 0 0 0
1064 207 40 -0.0951 19.264871050160938 28.748629432449945 37.12801354510741 0 0 0
1065 207 32 0.195 18.110093153629563 33.7748622272845 36.240735778374145 0 0 0
1066 207 34 -0.0995 18.57210724725775 34.33880512349833 34.87350819576204 0 0 0
1075 207 42 0.049 18.053332289307594 31.58342435627092 35.99706996822181 0 0 0
1076 207 42 0.049 19.73738466689747 32.24576771923316 36.25708454489001 0 0 0
1078 207 49 0.0417 18.675668355143575 27.933157590053458 36.74074571551288 0 0 0
1080 207 49 0.0467 19.604253386519726 29.32496916638276 36.252122102278136 0 0 0
1081 207 41 0.044 17.02095560173863 33.7131233444273 36.19480660668371 0 0 0
1082 207 43 0.045 18.3829771864555 33.60070861879545 34.0682546977473 0 0 0
1083 207 43 0.045 19.61868400151063 34.607904750876685 34.8987859862683 0 0 0
1084 207 43 0.045 17.992207668217556 35.259859673420905 34.657083164857696 0 0 0
1108 213 26 -0.755 21.520318340930956 18.994097606558547 37.05347991730466 0 0 0
1116 213 39 0.1004 18.696644210683537 15.935283128259712 36.86300527395299 0 0 0
1118 213 33 0.112 19.14174099335181 18.319751466646096 36.55014496775043 0 0 0
1121 213 32 0.195 20.046004348092815 19.435673089538916 37.05789869959898 0 0 0
1122 213 34 -0.0995 19.84968915567643 20.681437793429406 36.12601034865604 0 0 0
1127 213 48 0.0337 17.6084773060307 16.127684893496532 36.78577538018928 0 0 0
1128 213 48 0.0477 19.10571501052643 15.719470218781698 35.85875388243316 0 0 0
1129 213 42 0.049 18.062242255668778 18.627803748298746 36.66485365481542 0 0 0
1130 213 42 0.049 19.37582809406261 18.169497110932312 35.514561367542115 0 0 0
1137 213 43 0.045 20.51608303357835 21.511468016241338 36.380149623514114 0 0 0
1138 213 43 0.045 18.82579517863856 21.005669742278414 36.16195420175464 0 0 0
1139 213 43 0.045 19.9807491240036 20.479054979889202 35.05172804745248 0 0 0
1192 222 26 -0.755 28.890333793971394 34.45902729425215 34.009711265288104 0 0 0
1193 222 32 0.195 25.18784044648004 38.89000330924817 37.13441314827287 0 0 0
1194 222 33 0.112 24.77770565254628 37.66486734112138 36.3458063324685 0 0 0
1195 222 27 -0.438 23.964479259355443 38.1574629627776 35.25793817348709 0 0 0
1196 222 35 0.1401 23.53203653405002 37.229092211069386 34.2524393580055 0 0 0
1197 222 36 0.0954 22.446851835739345 36.304924814364014 34.869400695477985 0 0 0
1198 222 28 -0.4306 23.00708480149512 35.40381470320402 35.82145150798978 0 0 0
1199 222 38 0.1401 23.741160923217755 34.3370872808336 35.22721553593358 0 0 0
1200 222 39 0.1004 25.085184960953526 34.169014083510774 35.979232404134336 0 0 0
1201 222 27 -0.438 26.285134909937888 34.47286696665162 35.12171493031677 0 0 0
1202 222 33 0.112 26.476274259534566 33.4929068975636 34.0272672668022 0 0 0
1204 222 37 -0.0941 23.04555703904011 38.03670514769837 33.00168093537301 0 0 0
1205 222 40 -0.0951 22.88914453010365 33.05259931753723 35.276384684654104 0 0 0
1206 222 32 0.195 27.71914581972124 33.89697281216522 33.18548049600125 0 0 0
1207 222 41 0.044 25.456357241195438 39.64924000865179 36.37312230333683 0 0 0
1208 222 42 0.049 24.199540861765577 36.98865181532181 36.967979428489656 0 0 0
1209 222 42 0.049 25.73552441990949 37.209894166040044 35.973598331851576 0 0 0
1210 222 44 0.0577 24.45113786987026 36.67824612095926 33.89858428068595 0 0 0
1211 222 45 0.0517 21.84705771707642 35.78756989110707 34.08253826198105 0 0 0
1212 222 45 0.0437 21.697812380971985 36.97262741542025 35.40476119951626 0 0 0
1213 222 47 0.0577 23.921216254909993 34.64725170294011 34.2028400738254 0 0 0
1214 222 48 0.0337 25.14917635137507 33.12760098916176 36.34829024142472 0 0 0
1215 222 48 0.0477 25.1599270783923 34.793399902682545 36.83361434402259 0 0 0
1216 222 42 0.049 25.61826283714164 33.43839252936522 33.42401017943964 0 0 0
1217 222 42 0.049 26.62502436213507 32.53333892938774 34.53654823534902 0 0 0
1220 222 46 0.0447 22.160475842482054 38.57190390920809 33.24484111316405 0 0 0
1221 222 49 0.0417 22.00672313051876 33.267011646036636 34.69509258865792 0 0 0
1222 222 49 0.0547 22.544524708239315 32.77889266277276 36.273111851472436 0 0 0
1223 222 49 0.0467 23.45482174992496 32.20714769798308 34.89298852799214 0 0 0
1224 222 43 0.045 28.460310795260405 31.8560274429528 33.11769936527494 0 0 0
1283 235 23 0.147 40.92415552570915 18.893483752842926 33.69108980568093 0 0 0
1284 235 24 0.136 39.87937213384616 20.865163971404836 32.89059765774155 0 0 0
1285 235 21 0.06 40.830011304104374 16.404922529616073 33.64514125485973 0 0 0
1327 240 26 -0.755 16.452604013272015 14.341595363526425 33.09993438001129 0 0 0
1389 249 27 -0.438 32.091650338632604 23.047301750025206 36.62857192183468 0 0 0
1390 249 35 0.1401 31.511937885420885 22.93872695971222 35.30775646001657 0 0 0
1391 249 36 0.0954 30.059759089375518 22.426901069078063 35.180620568769996 0 0 0
1392 249 28 -0.4306 29.150813374176174 23.43597194150392 35.51841158412198 0 0 0
1393 249 38 0.1401 27.784043369421678 23.028124862869834 35.74384402684093 0 0 0
1394 249 39 0.1004 27.073268149771287 24.183582001161433 36.514276796772265 0 0 0
1398 249 37 -0.0941 31.69534962632819 24.268021300348792 34.6321548402977 0 0 0
1399 249 40 -0.0951 27.168826010129074 22.675133754749087 34.41944597188629 0 0 0
1404 249 42 0.049 32.6299697709114 21.100821218571784 37.16488706819135 0 0 0
1405 249 44 0.0577 32.141035582718445 22.207881603688854 34.72625108930689 0 0 0
1406 249 45 0.0517 29.88341546980976 21.538864378529013 35.85207182616972 0 0 0
1407 249 45 0.0437 29.79729040814216 22.1522217935201 34.16280963733482 0 0 0
1408 249 47 0.0577 27.788283501513632 22.164411645113187 36.415835587222674 0 0 0
1409 249 48 0.0337 26.01996636739559 24.11108997853981 36.3657784897631 0 0 0
1410 249 48 0.0477 27.45988740482539 25.155656291077975 36.15122231957224 0 0 0
1416 249 46 0.0447 31.11914613780817 25.039809959079385 35.161284228772516 0 0 0
1417 249 46 0.0497 31.327009857684878 24.169706664834656 33.594470788806944 0 0 0
1418 249 46 0.0447 32.7818236682046 24.54436829508476 34.57067506826934 0 0 0
1419 249 49 0.0417 26.217212191863183 22.167468784594405 34.558256590984584 0 0 0
1420 249 49 0.0547 27.775390551334844 21.884188591618464 33.90705171029377 0 0 0
1421 249 49 0.0467 26.992032259080737 23.532809344206903 33.800272348042256 0 0 0
1426 250 19 0.052 20.309220121816526 22.179832593845717 32.96227433696468 0 0 0
1427 250 19 0.052 19.32212049246518 20.7834487190321 32.705079591718544 0 0 0
1583 296 23 0.147 26.995120934370533 38.90034949586975 32.77426143777267 0 0 0
1584 296 24 0.136 25.248713527137546 39.89759449532655 34.14840629731265 0 0 0
1585 298 1 -0.341 18.152502527234336 38.4517689327713 33.98204966624547 0 0 0
1586 298 12 0.1251 18.31113892442797 38.97314003709682 35.235849640929665 0 0 0
1587 298 13 -0.16 17.279220256294167 39.494191076022844 36.01812248499536 0 0 0
1590 298 14 -0.086 19.823931532484465 39.495466663374145 37.060542734383134 0 0 0
1591 298 13 -0.201 19.59172564965965 39.04594756053558 35.776838322482234 0 0 0
1593 298 11 0.106 16.91012109609157 38.24821296559915 33.344870446262206 0 0 0
1594 298 23 0.147 16.298542454223597 39.48693225863753 35.60957066420133 0 0 0
1596 298 23 0.14 20.473837392087393 38.81227745362831 35.15096163226286 0 0 0
1600 298 21 0.06 16.246039674913497 39.06450009852405 33.586893125280724 0 0 0
1601 298 21 0.06 16.490418605390005 37.328048925976034 33.73705377155383 0 0 0
1605 300 33 0.112 36.993916599267635 32.43693079363837 36.71824781791436 0 0 0
1606 300 27 -0.438 37.04796798231054 33.830455578725335 37.199964554573164 0 0 0
1607 300 35 0.1401 37.103063787730235 34.857503371992465 36.18995155555767 0 0 0
1608 300 36 0.0954 36.77807492935534 36.20779007311363 36.88056781452747 0 0 0
1615 300 37 -0.0941 38.493066965943896 34.84594297144339 35.44829162797595 0 0 0
1620 300 42 0.049 36.17672688434452 32.385535571555266 35.99263120109773 0 0 0
1621 300 42 0.049 37.97095064599331 32.1312211244592 36.310285138129224 0 0 0
1622 300 44 0.0577 36.37745070443869 34.5871542877196 35.438997987720114 0 0 0
1624 300 45 0.0437 36.59173840930945 36.95475796542188 36.106578796002175 0 0 0
1631 300 43 0.045 36.639259717873045 29.63691979278446 36.68246536943617 0 0 0
1632 300 43 0.045 35.07493322741085 30.398973548419256 36.93061058300561 0 0 0
1633 300 46 0.0447 39.321626525278276 35.18177793865472 36.13667013497734 0 0 0
1634 300 46 0.0497 38.472180645776724 35.519768788186056 34.57003501629008 0 0 0
1635 300 46 0.0447 38.640917620619064 33.86397034088883 34.98274184655395 0 0 0
1647 313 9 0.158 37.778856208479496 17.174357773439247 34.63879541390766 0 0 0
1648 313 19 0.052 38.49350959600568 17.69423878882102 35.29451606007479 0 0 0
1649 313 19 0.052 38.41459653342703 16.808880262802052 33.82002723075459 0 0 0
1653 313 1 -0.341 37.674572602140714 19.981559993494173 35.41661485811261 0 0 0
1654 313 15 -0.1063 41.05033555212586 22.54713201401822 35.4039916416059 0 0 0
1655 313 14 -0.086 39.8162311141378 22.9405178578479 34.84680664783408 0 0 0
1656 313 13 -0.201 38.6784648027092 22.120583102458813 34.87275789469258 0 0 0
1657 313 12 0.1251 38.74228634140223 20.86781188876288 35.446166104470166 0 0 0
1658 313 13 -0.16 39.87975102142861 20.490823392741518 36.12203408588003 0 0 0
1659 313 14 -0.098 41.02322536566061 21.276846349016253 36.06186651608556 0 0 0
1660 313 11 0.106 37.07952570535922 19.56397046440647 34.14500638538992 0 0 0
1661 313 10 0.128 36.73207698945187 18.041259757671494 34.07041120905461 0 0 0
1662 313 4 -0.604 35.4232145281076 17.81545160100565 34.642473020376386 0 0 0
1666 313 24 0.139 39.69452938362649 23.894126154103038 34.25909222785913 0 0 0
1667 313 23 0.14 37.70239196857919 22.437919766219096 34.39269022798972 0 0 0
1668 313 23 0.147 39.93751883795153 19.533491942599092 36.64125070962349 0 0 0
1669 313 21 0.06 37.70702835502073 19.901970167814817 33.27788278202881 0 0 0
1670 313 21 0.06 36.17764379096687 20.193105980816984 33.946603095616084 0 0 0
1671 313 20 0.066 36.64596431241441 17.798582306478444 33.02069111925113 0 0 0
1672 313 8 0.416 35.55698237470742 16.9252017351239 35.0080033221845 0 0 0
1731 323 9 0.158 28.93137820843655 26.780002678796663 33.595476486838635 0 0 0
1732 323 19 0.052 28.024426710980634 26.83372502775653 34.26073766422099 0 0 0
1733 323 19 0.052 29.676790280590325 26.530960465107952 34.370492895422004 0 0 0
1734 323 9 0.158 22.103819556431034 18.706026073365024 35.69095228339484 0 0 0
1735 323 19 0.052 22.327977881407918 19.636482422919215 35.12728324527653 0 0 0
1736 323 19 0.052 21.392419217287646 18.16088075003522 35.11909634551054 0 0 0
1737 323 1 -0.341 24.878215642399645 17.194143017849264 33.93541992881225 0 0 0
1738 323 12 0.1251 25.12888626299934 17.99137081790321 32.879814725849926 0 0 0
1739 323 13 -0.16 25.04929190461364 19.38394803778986 32.98955017780362 0 0 0
1740 323 11 0.106 23.5039227693568 17.055644987444868 34.43543668007048 0 0 0
1741 323 10 0.128 23.378530491894466 17.836214211310626 35.73029918220716 0 0 0
1742 323 4 -0.604 23.181537382213754 16.834627877042507 36.711812567483506 0 0 0
1743 323 23 0.147 24.77819114745668 19.875801901953007 33.91236518668393 0 0 0
1744 323 20 0.066 28.989549433632057 24.71338673392264 33.13623483469778 0 0 0
1745 323 21 0.06 23.387722639178374 15.937568344030357 34.60283020396561 0 0 0
1746 323 21 0.06 22.819387994242348 17.42327622053246 33.653531930227636 0 0 0
1747 323 20 0.066 24.31954919608431 18.41886194903151 35.96305346376788 0 0 0
1833 343 19 0.052 31.573276605803578 16.672625224455583 33.30370146772755 0 0 0
1834 343 1 -0.341 32.5494480123316 14.750355392953717 35.11998315902048 0 0 0
1835 343 12 0.1251 32.40028679391827 14.703936749794611 36.51060006128546 0 0 0
1842 343 11 0.106 31.543666580218932 14.268926926213261 34.21081218189033 0 0 0
1843 343 10 0.128 32.01460290147902 14.597371198858133 32.75521145311527 0 0 0
1845 343 23 0.14 33.893172419689414 16.312771307344928 36.83806221131634 0 0 0
1852 343 21 0.06 30.634570203954695 14.81272157289009 34.4343615849813 0 0 0
1853 343 8 0.416 33.75625154906109 14.308222075887214 33.54497568757769 0 0 0
1887 366 26 -0.755 37.11940340040826 16.05943285500731 35.44078504473622 0 0 0
1888 366 33 0.112 36.757934749893124 14.469108554626091 33.48250932492278 0 0 0
1889 366 32 0.195 37.37243936601264 14.676751681842658 34.87447348160687 0 0 0
1890 366 42 0.049 35.848962253389416 15.044058168647725 33.478097739245115 0 0 0
1891 366 41 0.044 38.44349055244894 14.617378773124424 34.85088775718583 0 0 0
1899 372 32 0.195 16.2197229727809 31.928559368764873 32.97702756831815 0 0 0
1900 372 34 -0.0995 16.122659255261258 30.37390990607412 32.9560823375383 0 0 0
1901 372 41 0.044 17.19671428734235 32.12804490956459 33.462056586003314 0 0 0
1902 372 43 0.045 16.13418275003814 29.88200414592888 33.91789968272441 0 0 0
1940 382 19 0.052 27.41197713078909 38.29159338655842 36.27242533646756 0 0 0
1942 382 1 -0.341 31.162566378660877 39.673314415243595 37.17152088655965 0 0 0
1946 382 23 0.147 29.835346602118605 39.893466627691666 34.863172557086344 0 0 0
1948 382 21 0.06 30.07462859172871 38.16558445316416 36.32343196575822 0 0 0
1 5 9 0.158 37.761608465607765 28.142108428693575 46.78130040549706 0 0 0
2 5 19 0.052 38.43260651070542 27.30791998530085 46.80291305598644 0 0 0
3 5 19 0.052 36.74729282536175 27.818547186545118 46.906788180834155 0 0 0
4 5 1 -0.341 36.9657181771439 30.127420019012565 49.90216249150597 0 0 0
5 5 13 -0.16 40.25491463590011 32.96395356145659 55.603319620549044 0 0 0
6 5 14 -0.098 39.871126746386324 33.201660404470815 54.29921326434851 0 0 0
7 5 15 -0.1063 40.374004125181514 34.24683684517605 53.52944467257152 0 0 0
8 5 16 0.0496 39.85147587382281 34.49561377337379 52.09883424723376 0 0 0
9 5 17 -0.0861 38.93646759337072 35.7592743141187 52.14978983366705 0 0 0
10 5 17 -0.0861 41.00631075672015 34.87501853904959 51.14959374131956 0 0 0
11 5 15 -0.1063 39.09121977312289 33.290927675898416 51.544978313307 0 0 0
12 5 14 -0.086 37.71331428196039 33.281910356459576 51.59357467535074 0 0 0
13 5 13 -0.201 37.023534695267045 32.224715188385304 51.01590534226987 0 0 0
14 5 12 0.1251 37.70941815941576 31.140723802758174 50.45550068539742 0 0 0
15 5 13 -0.16 39.106470780756894 31.129445005952338 50.48318212044438 0 0 0
16 5 14 -0.098 39.77615190042715 32.24420382348055 51.001490025230574 0 0 0
17 5 11 0.106 37.02392844137439 29.926870309136113 48.496211820194006 0 0 0
18 5 10 0.128 38.16333671308871 28.96584667895288 48.025078088372226 0 0 0
19 5 4 -0.604 39.39050838188983 29.58932991422177 47.64404942278372 0 0 0
20 5 23 0.147 39.87294351778185 32.09127200436157 56.13350902239588 0 0 0
21 5 24 0.136 39.15576113753711 32.52061036535386 53.96349985396925 0 0 0
22 5 25 0.0427 38.105742049063764 35.67477552944959 52.87410953900827 0 0 0
23 5 25 0.0397 39.51046641944916 36.628272655938325 52.48234960360275 0 0 0
24 5 25 0.0367 38.529508884798176 35.985596018599665 51.16290897169382 0 0 0
25 5 25 0.0397 40.69192969145506 34.92760533043252 50.121114657619074 0 0 0
26 5 24 0.139 37.07253664681769 34.09116702905044 52.00695809854165 0 0 0
27 5 23 0.14 35.95706814690121 32.30063827682565 50.94907472585031 0 0 0
28 5 23 0.147 39.66561434809712 30.339698474320645 50.02585346616525 0 0 0
29 5 24 0.136 40.85916429325897 32.2389269659263 50.987641033656004 0 0 0
30 5 21 0.06 37.06359321561868 30.876366574932362 47.96961484821924 0 0 0
31 5 21 0.06 36.005127980547236 29.512051133002956 48.252955150820924 0 0 0
32 5 20 0.066 38.35124013699789 28.262730565596954 48.85786534769191 0 0 0
33 5 8 0.416 39.175239339151574 29.962260050269613 46.730108187308005 0 0 0
34 4 9 0.158 25.523023749600206 30.665209920206497 54.54872552065307 0 0 0
35 4 19 0.052 25.047135602634228 31.660770625187347 54.606225646840194 0 0 0
36 4 19 0.052 25.405259151389444 30.39007177104224 53.51401576081336 0 0 0
37 4 9 0.158 22.06417118555913 29.45919126956499 42.989232290288044 0 0 0
38 4 19 0.052 22.81380128106921 30.07596459931999 43.44816669328285 0 0 0
39 4 19 0.052 22.518168887658796 28.540660361376354 42.70129956165158 0 0 0
40 4 1 -0.341 26.99926020664626 31.993815569527435 52.63133239811338 0 0 0
41 4 1 -0.341 22.741328207723544 27.60546513311791 44.95285806291902 0 0 0
42 4 12 0.1251 23.85316991504128 27.991646590455147 45.671000465978565 0 0 0
43 4 13 -0.16 23.99692190562229 27.652074025416006 47.00564358020419 0 0 0